16
Properties=species:S:1:pos:R:3:forces:R:3 energy=-11354.558904971505 pbc="F F F"
C      -0.59229036      -0.36379622      -5.88763554       0.00006902       0.00001004       0.00006132 
C      -1.75451271      -0.79709705      -5.25680554       0.00000514      -0.00002741      -0.00003666 
C       0.36816888       0.36464814      -5.17196018      -0.00006271       0.00006477      -0.00002235 
H      -2.50085165      -1.37471197      -5.80852724       0.00003216       0.00000428      -0.00000109 
H       1.27935651       0.69793826      -5.67174599       0.00002056       0.00002445      -0.00006991 
C      -1.94663551      -0.50911004      -3.88870204      -0.00002422       0.00004525       0.00001679 
C       0.16649035       0.66643111      -3.81793580       0.00000963      -0.00007841       0.00002956 
H       0.91722429       1.23262774      -3.26460524       0.00000498      -0.00003443      -0.00001688 
C      -0.98984353       0.24049984      -3.17160796       0.00001405      -0.00000006       0.00001518 
H      -1.14572615       0.46397552      -2.11298161      -0.00000580       0.00002392       0.00006208 
H      -0.42998598      -0.59741315      -6.94090162      -0.00004227      -0.00002257      -0.00001450 
N      -3.13553342      -0.89447065      -3.26012163       0.00002718      -0.00000968      -0.00000287 
H      -3.10713788      -0.97307467      -2.24098839      -0.00003367       0.00001332      -0.00000152 
H      -3.63494926      -1.68470353      -3.67455258      -0.00000474      -0.00000377       0.00000359 
N      -4.44384986       0.73907039      -3.58846116      -0.00002429      -0.00002111      -0.00003410 
O      -3.82017284       1.45438641      -4.17426887       0.00001498       0.00001140       0.00001137 
