19
Properties=species:S:1:pos:R:3:forces:R:3 C6N2H9O2=T energy=-13355.023545085516 pbc="F F F"
C      -0.55280036      -0.10328337      -6.07485947      -0.00000696       0.00000927      -0.00000503 
C      -1.61320223      -0.64477450      -5.36433480      -0.00000329      -0.00000619       0.00000859 
C       0.51123865       0.48776686      -5.40632202       0.00001923       0.00000660       0.00001402 
H      -2.43615691      -1.11139396      -5.89148116       0.00002269       0.00001170       0.00002013 
H       1.33667785       0.90622946      -5.96389203      -0.00002612      -0.00001459       0.00000695 
C      -1.60046141      -0.60041737      -3.97478460       0.00001561      -0.00000164      -0.00001173 
C       0.51398682       0.53176539      -4.01919595       0.00000357       0.00000637      -0.00000103 
H       1.34251022       0.98351104      -3.49229463      -0.00002452      -0.00002210      -0.00002624 
C      -0.54065834      -0.00931045      -3.29812310      -0.00000678       0.00000182      -0.00001750 
H      -0.52809627       0.01710368      -2.21590708      -0.00000689      -0.00000500      -0.00000164 
H      -0.55779668      -0.14784899      -7.15471342       0.00000025      -0.00000134       0.00003278 
N      -2.72125737      -1.09538387      -3.24164961       0.00000679      -0.00001679      -0.00000685 
H      -2.48006583      -1.38181803      -2.30588618      -0.00000301       0.00000935      -0.00004137 
H      -3.16794353      -1.87244270      -3.70534134       0.00001828       0.00002802       0.00003150 
O      -3.90257113      -0.31152002      -0.44330182      -0.00001815      -0.00001894      -0.00004973 
H      -4.46025599      -0.91501458       0.03309400       0.00000944       0.00000021       0.00001663 
H      -3.46359941       0.18808249       0.23476800       0.00000892       0.00001545       0.00002774 
N      -3.94214709       0.58652638      -2.83698717      -0.00005747      -0.00002106      -0.00000249 
O      -4.94819682       0.44737197      -3.12675104       0.00004843       0.00001887       0.00000529 
